###############################################################################
# Maslen, E.N.;Strel'tsov, V.A.;Strel'tsova, N.R.;Ishizawa, N.;Satow, Y. (1993)
# Acta Crystallographica B (39,1983-) 49, 973-980
# Synchrotron X-ray study of the electron density in alpha-Al2O3
# 
# CIF by ICSD-for-WWW,  Copyright 2003 FIZ-Karlsruhe & A.W.Hewat (hewat@ill.fr)
# NOT TO BE PUBLISHED IN ANY FORM. See http://icsd.ill.fr/icsd/conditions.html
###############################################################################

data_73724-ICSD
_database_code_ICSD                73724
_audit_creation_date               1995-01-10
_chemical_name_systematic
'Aluminium oxide - alpha'
_chemical_formula_structural       
'Al2 O3'
_chemical_formula_sum              
'Al2 O3'
_publ_section_title                
'Al2 O3'
loop_
_citation_id
_citation_journal_abbrev
_citation_year
_citation_journal_volume
_citation_page_first
_citation_page_last
_citation_journal_id_ASTM
primary 'Acta Crystallographica B (39,1983-)' 1993 49 973 980 ASBSDK
loop_
_publ_author_name
Maslen, E.N.;Strel'tsov, V.A.;Strel'tsova, N.R.;Ishizawa, N.;Satow, Y.
_cell_length_a                     4.7540(5)
_cell_length_b                     4.7540(5)
_cell_length_c                     12.9820(6)
_cell_angle_alpha                  90.
_cell_angle_beta                   90.
_cell_angle_gamma                  120.
_cell_volume                       254.091
_cell_formula_units_Z              6
_symmetry_space_group_name_H-M     'R -3 c'
_symmetry_Int_Tables_number        167
_refine_ls_R_factor_all            0.0244
loop_
_symmetry_equiv_pos_site_id
_symmetry_equiv_pos_as_xyz
 1 'x,y,z'
 2 '1/3+x,2/3+y,2/3+z'
 3 '2/3+x,1/3+y,1/3+z'
 4 'x-y,-y,1/2-z'
 5 '1/3+x-y,2/3-y,1/6-z'
 6 '2/3+x-y,1/3-y,5/6-z'
 7 '-y,x-y,z'
 8 '1/3-y,2/3+x-y,2/3+z'
 9 '2/3-y,1/3+x-y,1/3+z'
 10 'x,x-y,1/2+z'
 11 '1/3+x,2/3+x-y,1/6+z'
 12 '2/3+x,1/3+x-y,5/6+z'
 13 'x-y,x,-z'
 14 '1/3+x-y,2/3+x,2/3-z'
 15 '2/3+x-y,1/3+x,1/3-z'
 16 'y,x,1/2-z'
 17 '1/3+y,2/3+x,1/6-z'
 18 '2/3+y,1/3+x,5/6-z'
 19 '-x,-y,-z'
 20 '1/3-x,2/3-y,2/3-z'
 21 '2/3-x,1/3-y,1/3-z'
 22 '-x+y,y,1/2+z'
 23 '1/3-x+y,2/3+y,1/6+z'
 24 '2/3-x+y,1/3+y,5/6+z'
 25 'y,-x+y,-z'
 26 '1/3+y,2/3-x+y,2/3-z'
 27 '2/3+y,1/3-x+y,1/3-z'
 28 '-x,-x+y,1/2-z'
 29 '1/3-x,2/3-x+y,1/6-z'
 30 '2/3-x,1/3-x+y,5/6-z'
 31 '-x+y,-x,z'
 32 '1/3-x+y,2/3-x,2/3+z'
 33 '2/3-x+y,1/3-x,1/3+z'
 34 '-y,-x,1/2+z'
 35 '1/3-y,2/3-x,1/6+z'
 36 '2/3-y,1/3-x,5/6+z'
loop_
_atom_type_symbol
_atom_type_oxidation_number
Al3+     3.
O2-     -2.
 loop_
_atom_site_label
_atom_site_type_symbol
_atom_site_symmetry_multiplicity
_atom_site_Wyckoff_symbol
_atom_site_fract_x
_atom_site_fract_y
_atom_site_fract_z
_atom_site_B_iso_or_equiv
_atom_site_occupancy
Al1 Al3+ 12 c 0 0 0.35223(4) 0.0 1.
O1 O2- 18 e 0.69378(17) 0 0.25 0.0 1.
loop_
_atom_site_aniso_label
_atom_site_aniso_type_symbol
_atom_site_aniso_U_11
_atom_site_aniso_U_22
_atom_site_aniso_U_33
_atom_site_aniso_U_12
_atom_site_aniso_U_13
_atom_site_aniso_U_23
Al1 Al3+ 0.00206(12) 0.00206(12) 0.00252(17) 0.00103(6) 0 0
O1 O2- 0.00247(20) 0.00258(26) 0.00278(25) 0.00129(13) 0.00028(10) 0.00056(20)
#End of data_73724-ICSD

